MODEL 4
REMARK VINA RESULT:   -10.319      2.385      2.738
REMARK INTER + INTRA:         -18.071
REMARK INTER:                 -16.745
REMARK INTRA:                  -1.326
REMARK UNBOUND:                -1.720
REMARK SMILES CS(=O)(=O)CCNCc1ccc(-c2ccc3ncnc(Nc4ccc(OCc5cccc(F)c5)c(Cl)c4)c3c2)o1
REMARK SMILES IDX 9 1 10 2 11 3 12 4 40 5 8 8 7 11 6 13 5 16 2 19 1 20 3 24
REMARK SMILES IDX 4 25 13 26 14 27 39 28 15 29 38 31 16 33 20 35 17 36 19 37
REMARK SMILES IDX 21 38 18 39 22 42 23 43 37 44 24 45 35 47 25 49 36 51 26 52
REMARK SMILES IDX 27 53 28 56 29 57 34 58 30 59 32 61 31 63 33 65
REMARK H PARENT 10 6 11 7 8 9 8 10 7 12 6 14 6 15 5 17 5 18 1 21 1 22 1 23
REMARK H PARENT 14 30 39 32 15 34 21 40 18 41 23 46 37 48 24 50 27 54 27 55
REMARK H PARENT 29 60 34 62 30 64 31 66
REMARK INDEX MAP 9 1 10 2 11 3 12 4 13 5 51 6 52 7 8 8 49 9 50 10 7 11 48 12
REMARK INDEX MAP 6 13 46 14 47 15 5 16 44 17 45 18 2 19 1 20 41 21 42 22 43 23
REMARK INDEX MAP 3 24 4 25 14 26 15 27 40 28 16 29 53 30 39 31 66 32 17 33
REMARK INDEX MAP 54 34 21 35 18 36 20 37 22 38 19 39 56 40 55 41 23 42 24 43
REMARK INDEX MAP 38 44 25 45 57 46 36 47 65 48 26 49 58 50 37 51 27 52 28 53
REMARK INDEX MAP 59 54 60 55 29 56 30 57 35 58 31 59 61 60 33 61 64 62 32 63
REMARK INDEX MAP 62 64 34 65 63 66
REMARK Flexibility Score: inf
ROOT
ATOM      1  C   UNL     1      52.781  62.886  42.132  1.00  0.00     0.119 A 
ATOM      2  C   UNL     1      53.568  63.024  41.040  1.00  0.00    -0.019 A 
ATOM      3  C   UNL     1      52.872  63.816  40.125  1.00  0.00    -0.016 A 
ATOM      4  C   UNL     1      51.674  64.138  40.687  1.00  0.00     0.135 A 
ATOM      5  O   UNL     1      51.620  63.562  41.929  1.00  0.00    -0.458 OA
ATOM      6  H   UNL     1      54.532  62.607  40.908  1.00  0.00     0.065 H 
ATOM      7  H   UNL     1      53.209  64.109  39.164  1.00  0.00     0.066 H 
ENDROOT
BRANCH   1   8
ATOM      8  C   UNL     1      53.026  62.146  43.429  1.00  0.00     0.055 C 
ATOM      9  H   UNL     1      54.096  62.038  43.552  1.00  0.00     0.050 H 
ATOM     10  H   UNL     1      52.571  62.681  44.250  1.00  0.00     0.050 H 
BRANCH   8  11
ATOM     11  N   UNL     1      52.427  60.810  43.226  1.00  0.00    -0.308 NA
ATOM     12  H   UNL     1      51.518  60.870  43.680  1.00  0.00     0.122 HD
BRANCH  11  13
ATOM     13  C   UNL     1      53.202  59.714  43.868  1.00  0.00     0.016 C 
ATOM     14  H   UNL     1      53.692  60.058  44.782  1.00  0.00     0.044 H 
ATOM     15  H   UNL     1      52.531  58.891  44.131  1.00  0.00     0.044 H 
BRANCH  13  16
ATOM     16  C   UNL     1      54.238  59.175  42.866  1.00  0.00     0.078 C 
ATOM     17  H   UNL     1      54.965  59.956  42.729  1.00  0.00     0.051 H 
ATOM     18  H   UNL     1      54.714  58.389  43.433  1.00  0.00     0.051 H 
BRANCH  16  19
ATOM     19  S   UNL     1      53.639  58.528  41.315  1.00  0.00    -0.033 S 
ATOM     20  C   UNL     1      52.392  57.330  41.716  1.00  0.00     0.054 C 
ATOM     21  H   UNL     1      51.856  56.987  40.844  1.00  0.00     0.046 H 
ATOM     22  H   UNL     1      51.625  57.718  42.369  1.00  0.00     0.046 H 
ATOM     23  H   UNL     1      52.783  56.443  42.190  1.00  0.00     0.046 H 
ATOM     24  O   UNL     1      53.011  59.589  40.609  1.00  0.00    -0.175 OA
ATOM     25  O   UNL     1      54.712  57.857  40.667  1.00  0.00    -0.175 OA
ENDBRANCH  16  19
ENDBRANCH  13  16
ENDBRANCH  11  13
ENDBRANCH   8  11
ENDBRANCH   1   8
BRANCH   4  26
ATOM     26  C   UNL     1      50.562  64.930  40.177  1.00  0.00     0.018 A 
ATOM     27  C   UNL     1      49.797  65.743  41.052  1.00  0.00    -0.049 A 
ATOM     28  C   UNL     1      50.230  64.911  38.828  1.00  0.00    -0.039 A 
ATOM     29  C   UNL     1      48.753  66.506  40.577  1.00  0.00    -0.035 A 
ATOM     30  H   UNL     1      50.033  65.762  42.084  1.00  0.00     0.063 H 
ATOM     31  C   UNL     1      49.157  65.688  38.326  1.00  0.00     0.041 A 
ATOM     32  H   UNL     1      50.801  64.314  38.168  1.00  0.00     0.063 H 
ATOM     33  C   UNL     1      48.422  66.495  39.208  1.00  0.00     0.076 A 
ATOM     34  H   UNL     1      48.184  67.113  41.232  1.00  0.00     0.064 H 
ATOM     35  C   UNL     1      48.753  65.740  36.960  1.00  0.00     0.134 A 
ATOM     36  N   UNL     1      47.395  67.267  38.743  1.00  0.00    -0.235 NA
ATOM     37  N   UNL     1      47.767  66.500  36.561  1.00  0.00    -0.220 NA
ATOM     38  N   UNL     1      49.394  64.950  36.020  1.00  0.00    -0.299 N 
ATOM     39  C   UNL     1      47.108  67.250  37.474  1.00  0.00     0.119 A 
ATOM     40  H   UNL     1      49.983  64.194  36.386  1.00  0.00     0.154 HD
ATOM     41  H   UNL     1      46.309  67.856  37.126  1.00  0.00     0.105 H 
BRANCH  38  42
ATOM     42  C   UNL     1      49.242  65.027  34.617  1.00  0.00     0.034 A 
ATOM     43  C   UNL     1      48.994  63.843  33.920  1.00  0.00    -0.037 A 
ATOM     44  C   UNL     1      49.370  66.245  33.949  1.00  0.00    -0.019 A 
ATOM     45  C   UNL     1      48.864  63.877  32.534  1.00  0.00    -0.017 A 
ATOM     46  H   UNL     1      48.896  62.928  34.446  1.00  0.00     0.064 H 
ATOM     47  C   UNL     1      49.242  66.280  32.563  1.00  0.00     0.084 A 
ATOM     48  H   UNL     1      49.561  67.135  34.486  1.00  0.00     0.065 H 
ATOM     49  C   UNL     1      48.988  65.091  31.856  1.00  0.00     0.139 A 
ATOM     50  H   UNL     1      48.669  62.983  32.004  1.00  0.00     0.066 H 
ATOM     51 CL   UNL     1      49.400  67.796  31.733  1.00  0.00    -0.080 Cl
BRANCH  49  52
ATOM     52  O   UNL     1      48.870  65.159  30.470  1.00  0.00    -0.486 OA
BRANCH  52  53
ATOM     53  C   UNL     1      48.484  64.083  29.573  1.00  0.00     0.115 C 
ATOM     54  H   UNL     1      48.494  63.143  30.106  1.00  0.00     0.075 H 
ATOM     55  H   UNL     1      49.151  64.084  28.721  1.00  0.00     0.075 H 
BRANCH  53  56
ATOM     56  C   UNL     1      47.081  64.410  29.091  1.00  0.00    -0.008 A 
ATOM     57  C   UNL     1      46.496  63.670  28.057  1.00  0.00    -0.055 A 
ATOM     58  C   UNL     1      46.364  65.461  29.669  1.00  0.00    -0.020 A 
ATOM     59  C   UNL     1      45.209  63.966  27.606  1.00  0.00    -0.059 A 
ATOM     60  H   UNL     1      47.031  62.873  27.607  1.00  0.00     0.062 H 
ATOM     61  C   UNL     1      45.086  65.739  29.205  1.00  0.00     0.124 A 
ATOM     62  H   UNL     1      46.779  66.036  30.455  1.00  0.00     0.065 H 
ATOM     63  C   UNL     1      44.493  65.011  28.183  1.00  0.00    -0.026 A 
ATOM     64  H   UNL     1      44.777  63.396  26.823  1.00  0.00     0.062 H 
ATOM     65  F   UNL     1      44.393  66.758  29.767  1.00  0.00    -0.205 F 
ATOM     66  H   UNL     1      43.515  65.251  27.853  1.00  0.00     0.065 H 
ENDBRANCH  53  56
ENDBRANCH  52  53
ENDBRANCH  49  52
ENDBRANCH  38  42
ENDBRANCH   4  26
TORSDOF 10

ENDMDL
